tcal                                                                    
SP        RB3LYP                                                      6-31G(d,p)          
Number of atoms                            I               24
Info1-9                                    I   N=           9
           9           9           0           0           0         111
           1          18        -502
Full Title                                 C   N=           1
tcal        
Route                                      C   N=           8
# b3lyp/6-31g(d,p) # symmetry=none # geom=allcheck # guess=r
ead # pop=full # iop(3/33=4,5/33=3) 
Charge                                     I                0
Multiplicity                               I                1
Number of electrons                        I               94
Number of alpha electrons                  I               47
Number of beta electrons                   I               47
Number of basis functions                  I              260
Number of independent functions            I              260
Number of point charges in /Mol/           I                0
Number of translation vectors              I                0
Atomic numbers                             I   N=          24
           6           1           6           6           1           6
           1           6           6           1           6           1
           6           1           6           6           1           6
           1           6           6           1           6           1
Nuclear charges                            R   N=          24
  6.00000000E+00  1.00000000E+00  6.00000000E+00  6.00000000E+00  1.00000000E+00
  6.00000000E+00  1.00000000E+00  6.00000000E+00  6.00000000E+00  1.00000000E+00
  6.00000000E+00  1.00000000E+00  6.00000000E+00  1.00000000E+00  6.00000000E+00
  6.00000000E+00  1.00000000E+00  6.00000000E+00  1.00000000E+00  6.00000000E+00
  6.00000000E+00  1.00000000E+00  6.00000000E+00  1.00000000E+00
Current cartesian coordinates              R   N=          72
  6.05275498E+00  1.37202224E+01  8.34958103E+00  5.38581394E+00  1.53381000E+01
  8.74746097E+00  8.19559858E+00  1.28535032E+01  9.62562048E+00  9.40728719E+00
  1.43229618E+01  1.15333954E+01  8.75015572E+00  1.59397038E+01  1.19550178E+01
  1.14942100E+01  1.34426462E+01  1.27597785E+01  1.22678110E+01  1.44419220E+01
  1.40344215E+01  4.87291959E+00  1.22530314E+01  6.49891176E+00  2.66094603E+00
  1.30868958E+01  5.18857756E+00  1.94777095E+00  1.46866434E+01  5.58800897E+00
  1.56039599E+00  1.16276341E+01  3.37934054E+00  9.63760324E-02  1.22190428E+01
  2.52476859E+00  8.02893608E+00  8.93910566E+00  7.16835480E+00  8.69587523E+00
  7.32122797E+00  6.77047485E+00  5.88609059E+00  9.80582477E+00  5.89231534E+00
  4.67440387E+00  8.33636617E+00  3.98454045E+00  5.33153534E+00  6.71962421E+00
  3.56291798E+00  2.58748104E+00  9.21668186E+00  2.75815732E+00  1.81387819E+00
  8.21740602E+00  1.48351438E+00  9.20876958E+00  1.04062966E+01  9.01902407E+00
  1.14207431E+01  9.57243225E+00  1.03293583E+01  1.21339201E+01  7.97268460E+00
  9.92992686E+00  1.25212932E+01  1.10316939E+01  1.21385953E+01  1.39853131E+01
  1.04402852E+01  1.29931672E+01
Number of symbols in /Mol/                 I                0
Int Atom Types                             I   N=          24
           0           0           0           0           0           0
           0           0           0           0           0           0
           0           0           0           0           0           0
           0           0           0           0           0           0
Force Field                                I                0
Atom Types                                 C   N=          24
                                                            
                                                            
                                                            
                                                            
                                                
MM charges                                 R   N=          24
  0.00000000E+00  0.00000000E+00  0.00000000E+00  0.00000000E+00  0.00000000E+00
  0.00000000E+00  0.00000000E+00  0.00000000E+00  0.00000000E+00  0.00000000E+00
  0.00000000E+00  0.00000000E+00  0.00000000E+00  0.00000000E+00  0.00000000E+00
  0.00000000E+00  0.00000000E+00  0.00000000E+00  0.00000000E+00  0.00000000E+00
  0.00000000E+00  0.00000000E+00  0.00000000E+00  0.00000000E+00
Integer atomic weights                     I   N=          24
          12           1          12          12           1          12
           1          12          12           1          12           1
          12           1          12          12           1          12
           1          12          12           1          12           1
Real atomic weights                        R   N=          24
  1.20000000E+01  1.00782504E+00  1.20000000E+01  1.20000000E+01  1.00782504E+00
  1.20000000E+01  1.00782504E+00  1.20000000E+01  1.20000000E+01  1.00782504E+00
  1.20000000E+01  1.00782504E+00  1.20000000E+01  1.00782504E+00  1.20000000E+01
  1.20000000E+01  1.00782504E+00  1.20000000E+01  1.00782504E+00  1.20000000E+01
  1.20000000E+01  1.00782504E+00  1.20000000E+01  1.00782504E+00
Atom fragment info                         I   N=          24
           0           0           0           0           0           0
           0           0           0           0           0           0
           0           0           0           0           0           0
           0           0           0           0           0           0
Atom residue num                           I   N=          24
           0           0           0           0           0           0
           0           0           0           0           0           0
           0           0           0           0           0           0
           0           0           0           0           0           0
Nuclear spins                              I   N=          24
           0           1           0           0           1           0
           1           0           0           1           0           1
           0           1           0           0           1           0
           1           0           0           1           0           1
Nuclear ZEff                               R   N=          24
 -3.60000000E+00 -1.00000000E+00 -3.60000000E+00 -3.60000000E+00 -1.00000000E+00
 -3.60000000E+00 -1.00000000E+00 -3.60000000E+00 -3.60000000E+00 -1.00000000E+00
 -3.60000000E+00 -1.00000000E+00 -3.60000000E+00 -1.00000000E+00 -3.60000000E+00
 -3.60000000E+00 -1.00000000E+00 -3.60000000E+00 -1.00000000E+00 -3.60000000E+00
 -3.60000000E+00 -1.00000000E+00 -3.60000000E+00 -1.00000000E+00
Nuclear ZNuc                               R   N=          24
  6.00000000E+00  1.00000000E+00  6.00000000E+00  6.00000000E+00  1.00000000E+00
  6.00000000E+00  1.00000000E+00  6.00000000E+00  6.00000000E+00  1.00000000E+00
  6.00000000E+00  1.00000000E+00  6.00000000E+00  1.00000000E+00  6.00000000E+00
  6.00000000E+00  1.00000000E+00  6.00000000E+00  1.00000000E+00  6.00000000E+00
  6.00000000E+00  1.00000000E+00  6.00000000E+00  1.00000000E+00
Nuclear QMom                               R   N=          24
  0.00000000E+00  0.00000000E+00  0.00000000E+00  0.00000000E+00  0.00000000E+00
  0.00000000E+00  0.00000000E+00  0.00000000E+00  0.00000000E+00  0.00000000E+00
  0.00000000E+00  0.00000000E+00  0.00000000E+00  0.00000000E+00  0.00000000E+00
  0.00000000E+00  0.00000000E+00  0.00000000E+00  0.00000000E+00  0.00000000E+00
  0.00000000E+00  0.00000000E+00  0.00000000E+00  0.00000000E+00
Nuclear GFac                               R   N=          24
  0.00000000E+00  2.79284600E+00  0.00000000E+00  0.00000000E+00  2.79284600E+00
  0.00000000E+00  2.79284600E+00  0.00000000E+00  0.00000000E+00  2.79284600E+00
  0.00000000E+00  2.79284600E+00  0.00000000E+00  2.79284600E+00  0.00000000E+00
  0.00000000E+00  2.79284600E+00  0.00000000E+00  2.79284600E+00  0.00000000E+00
  0.00000000E+00  2.79284600E+00  0.00000000E+00  2.79284600E+00
MicOpt                                     I   N=          24
          -1          -1          -1          -1          -1          -1
          -1          -1          -1          -1          -1          -1
          -1          -1          -1          -1          -1          -1
          -1          -1          -1          -1          -1          -1
Number of residues                         I                0
Number of secondary structures             I                0
Number of contracted shells                I               86
Number of primitive shells                 I              204
Pure/Cartesian d shells                    I                1
Pure/Cartesian f shells                    I                0
Highest angular momentum                   I                2
Largest degree of contraction              I                6
Shell types                                I   N=          86
           0          -1          -1           2           0           0
           1           0          -1          -1           2           0
          -1          -1           2           0           0           1
           0          -1          -1           2           0           0
           1           0          -1          -1           2           0
          -1          -1           2           0           0           1
           0          -1          -1           2           0           0
           1           0          -1          -1           2           0
           0           1           0          -1          -1           2
           0          -1          -1           2           0           0
           1           0          -1          -1           2           0
           0           1           0          -1          -1           2
           0          -1          -1           2           0           0
           1           0          -1          -1           2           0
           0           1
Number of primitives per shell             I   N=          86
           6           3           1           1           3           1
           1           6           3           1           1           6
           3           1           1           3           1           1
           6           3           1           1           3           1
           1           6           3           1           1           6
           3           1           1           3           1           1
           6           3           1           1           3           1
           1           6           3           1           1           3
           1           1           6           3           1           1
           6           3           1           1           3           1
           1           6           3           1           1           3
           1           1           6           3           1           1
           6           3           1           1           3           1
           1           6           3           1           1           3
           1           1
Shell to atom map                          I   N=          86
           1           1           1           1           2           2
           2           3           3           3           3           4
           4           4           4           5           5           5
           6           6           6           6           7           7
           7           8           8           8           8           9
           9           9           9          10          10          10
          11          11          11          11          12          12
          12          13          13          13          13          14
          14          14          15          15          15          15
          16          16          16          16          17          17
          17          18          18          18          18          19
          19          19          20          20          20          20
          21          21          21          21          22          22
          22          23          23          23          23          24
          24          24
Primitive exponents                        R   N=         204
  3.04752488E+03  4.57369518E+02  1.03948685E+02  2.92101553E+01  9.28666296E+00
  3.16392696E+00  7.86827235E+00  1.88128854E+00  5.44249258E-01  1.68714478E-01
  8.00000000E-01  1.87311370E+01  2.82539436E+00  6.40121692E-01  1.61277759E-01
  1.10000000E+00  3.04752488E+03  4.57369518E+02  1.03948685E+02  2.92101553E+01
  9.28666296E+00  3.16392696E+00  7.86827235E+00  1.88128854E+00  5.44249258E-01
  1.68714478E-01  8.00000000E-01  3.04752488E+03  4.57369518E+02  1.03948685E+02
  2.92101553E+01  9.28666296E+00  3.16392696E+00  7.86827235E+00  1.88128854E+00
  5.44249258E-01  1.68714478E-01  8.00000000E-01  1.87311370E+01  2.82539436E+00
  6.40121692E-01  1.61277759E-01  1.10000000E+00  3.04752488E+03  4.57369518E+02
  1.03948685E+02  2.92101553E+01  9.28666296E+00  3.16392696E+00  7.86827235E+00
  1.88128854E+00  5.44249258E-01  1.68714478E-01  8.00000000E-01  1.87311370E+01
  2.82539436E+00  6.40121692E-01  1.61277759E-01  1.10000000E+00  3.04752488E+03
  4.57369518E+02  1.03948685E+02  2.92101553E+01  9.28666296E+00  3.16392696E+00
  7.86827235E+00  1.88128854E+00  5.44249258E-01  1.68714478E-01  8.00000000E-01
  3.04752488E+03  4.57369518E+02  1.03948685E+02  2.92101553E+01  9.28666296E+00
  3.16392696E+00  7.86827235E+00  1.88128854E+00  5.44249258E-01  1.68714478E-01
  8.00000000E-01  1.87311370E+01  2.82539436E+00  6.40121692E-01  1.61277759E-01
  1.10000000E+00  3.04752488E+03  4.57369518E+02  1.03948685E+02  2.92101553E+01
  9.28666296E+00  3.16392696E+00  7.86827235E+00  1.88128854E+00  5.44249258E-01
  1.68714478E-01  8.00000000E-01  1.87311370E+01  2.82539436E+00  6.40121692E-01
  1.61277759E-01  1.10000000E+00  3.04752488E+03  4.57369518E+02  1.03948685E+02
  2.92101553E+01  9.28666296E+00  3.16392696E+00  7.86827235E+00  1.88128854E+00
  5.44249258E-01  1.68714478E-01  8.00000000E-01  1.87311370E+01  2.82539436E+00
  6.40121692E-01  1.61277759E-01  1.10000000E+00  3.04752488E+03  4.57369518E+02
  1.03948685E+02  2.92101553E+01  9.28666296E+00  3.16392696E+00  7.86827235E+00
  1.88128854E+00  5.44249258E-01  1.68714478E-01  8.00000000E-01  3.04752488E+03
  4.57369518E+02  1.03948685E+02  2.92101553E+01  9.28666296E+00  3.16392696E+00
  7.86827235E+00  1.88128854E+00  5.44249258E-01  1.68714478E-01  8.00000000E-01
  1.87311370E+01  2.82539436E+00  6.40121692E-01  1.61277759E-01  1.10000000E+00
  3.04752488E+03  4.57369518E+02  1.03948685E+02  2.92101553E+01  9.28666296E+00
  3.16392696E+00  7.86827235E+00  1.88128854E+00  5.44249258E-01  1.68714478E-01
  8.00000000E-01  1.87311370E+01  2.82539436E+00  6.40121692E-01  1.61277759E-01
  1.10000000E+00  3.04752488E+03  4.57369518E+02  1.03948685E+02  2.92101553E+01
  9.28666296E+00  3.16392696E+00  7.86827235E+00  1.88128854E+00  5.44249258E-01
  1.68714478E-01  8.00000000E-01  3.04752488E+03  4.57369518E+02  1.03948685E+02
  2.92101553E+01  9.28666296E+00  3.16392696E+00  7.86827235E+00  1.88128854E+00
  5.44249258E-01  1.68714478E-01  8.00000000E-01  1.87311370E+01  2.82539436E+00
  6.40121692E-01  1.61277759E-01  1.10000000E+00  3.04752488E+03  4.57369518E+02
  1.03948685E+02  2.92101553E+01  9.28666296E+00  3.16392696E+00  7.86827235E+00
  1.88128854E+00  5.44249258E-01  1.68714478E-01  8.00000000E-01  1.87311370E+01
  2.82539436E+00  6.40121692E-01  1.61277759E-01  1.10000000E+00
Contraction coefficients                   R   N=         204
  1.83473713E-03  1.40373228E-02  6.88426223E-02  2.32184443E-01  4.67941348E-01
  3.62311985E-01 -1.19332420E-01 -1.60854152E-01  1.14345644E+00  1.00000000E+00
  1.00000000E+00  3.34946043E-02  2.34726953E-01  8.13757326E-01  1.00000000E+00
  1.00000000E+00  1.83473713E-03  1.40373228E-02  6.88426223E-02  2.32184443E-01
  4.67941348E-01  3.62311985E-01 -1.19332420E-01 -1.60854152E-01  1.14345644E+00
  1.00000000E+00  1.00000000E+00  1.83473713E-03  1.40373228E-02  6.88426223E-02
  2.32184443E-01  4.67941348E-01  3.62311985E-01 -1.19332420E-01 -1.60854152E-01
  1.14345644E+00  1.00000000E+00  1.00000000E+00  3.34946043E-02  2.34726953E-01
  8.13757326E-01  1.00000000E+00  1.00000000E+00  1.83473713E-03  1.40373228E-02
  6.88426223E-02  2.32184443E-01  4.67941348E-01  3.62311985E-01 -1.19332420E-01
 -1.60854152E-01  1.14345644E+00  1.00000000E+00  1.00000000E+00  3.34946043E-02
  2.34726953E-01  8.13757326E-01  1.00000000E+00  1.00000000E+00  1.83473713E-03
  1.40373228E-02  6.88426223E-02  2.32184443E-01  4.67941348E-01  3.62311985E-01
 -1.19332420E-01 -1.60854152E-01  1.14345644E+00  1.00000000E+00  1.00000000E+00
  1.83473713E-03  1.40373228E-02  6.88426223E-02  2.32184443E-01  4.67941348E-01
  3.62311985E-01 -1.19332420E-01 -1.60854152E-01  1.14345644E+00  1.00000000E+00
  1.00000000E+00  3.34946043E-02  2.34726953E-01  8.13757326E-01  1.00000000E+00
  1.00000000E+00  1.83473713E-03  1.40373228E-02  6.88426223E-02  2.32184443E-01
  4.67941348E-01  3.62311985E-01 -1.19332420E-01 -1.60854152E-01  1.14345644E+00
  1.00000000E+00  1.00000000E+00  3.34946043E-02  2.34726953E-01  8.13757326E-01
  1.00000000E+00  1.00000000E+00  1.83473713E-03  1.40373228E-02  6.88426223E-02
  2.32184443E-01  4.67941348E-01  3.62311985E-01 -1.19332420E-01 -1.60854152E-01
  1.14345644E+00  1.00000000E+00  1.00000000E+00  3.34946043E-02  2.34726953E-01
  8.13757326E-01  1.00000000E+00  1.00000000E+00  1.83473713E-03  1.40373228E-02
  6.88426223E-02  2.32184443E-01  4.67941348E-01  3.62311985E-01 -1.19332420E-01
 -1.60854152E-01  1.14345644E+00  1.00000000E+00  1.00000000E+00  1.83473713E-03
  1.40373228E-02  6.88426223E-02  2.32184443E-01  4.67941348E-01  3.62311985E-01
 -1.19332420E-01 -1.60854152E-01  1.14345644E+00  1.00000000E+00  1.00000000E+00
  3.34946043E-02  2.34726953E-01  8.13757326E-01  1.00000000E+00  1.00000000E+00
  1.83473713E-03  1.40373228E-02  6.88426223E-02  2.32184443E-01  4.67941348E-01
  3.62311985E-01 -1.19332420E-01 -1.60854152E-01  1.14345644E+00  1.00000000E+00
  1.00000000E+00  3.34946043E-02  2.34726953E-01  8.13757326E-01  1.00000000E+00
  1.00000000E+00  1.83473713E-03  1.40373228E-02  6.88426223E-02  2.32184443E-01
  4.67941348E-01  3.62311985E-01 -1.19332420E-01 -1.60854152E-01  1.14345644E+00
  1.00000000E+00  1.00000000E+00  1.83473713E-03  1.40373228E-02  6.88426223E-02
  2.32184443E-01  4.67941348E-01  3.62311985E-01 -1.19332420E-01 -1.60854152E-01
  1.14345644E+00  1.00000000E+00  1.00000000E+00  3.34946043E-02  2.34726953E-01
  8.13757326E-01  1.00000000E+00  1.00000000E+00  1.83473713E-03  1.40373228E-02
  6.88426223E-02  2.32184443E-01  4.67941348E-01  3.62311985E-01 -1.19332420E-01
 -1.60854152E-01  1.14345644E+00  1.00000000E+00  1.00000000E+00  3.34946043E-02
  2.34726953E-01  8.13757326E-01  1.00000000E+00  1.00000000E+00
P(S=P) Contraction coefficients            R   N=         204
  0.00000000E+00  0.00000000E+00  0.00000000E+00  0.00000000E+00  0.00000000E+00
  0.00000000E+00  6.89990666E-02  3.16423961E-01  7.44308291E-01  1.00000000E+00
  0.00000000E+00  0.00000000E+00  0.00000000E+00  0.00000000E+00  0.00000000E+00
  0.00000000E+00  0.00000000E+00  0.00000000E+00  0.00000000E+00  0.00000000E+00
  0.00000000E+00  0.00000000E+00  6.89990666E-02  3.16423961E-01  7.44308291E-01
  1.00000000E+00  0.00000000E+00  0.00000000E+00  0.00000000E+00  0.00000000E+00
  0.00000000E+00  0.00000000E+00  0.00000000E+00  6.89990666E-02  3.16423961E-01
  7.44308291E-01  1.00000000E+00  0.00000000E+00  0.00000000E+00  0.00000000E+00
  0.00000000E+00  0.00000000E+00  0.00000000E+00  0.00000000E+00  0.00000000E+00
  0.00000000E+00  0.00000000E+00  0.00000000E+00  0.00000000E+00  6.89990666E-02
  3.16423961E-01  7.44308291E-01  1.00000000E+00  0.00000000E+00  0.00000000E+00
  0.00000000E+00  0.00000000E+00  0.00000000E+00  0.00000000E+00  0.00000000E+00
  0.00000000E+00  0.00000000E+00  0.00000000E+00  0.00000000E+00  0.00000000E+00
  6.89990666E-02  3.16423961E-01  7.44308291E-01  1.00000000E+00  0.00000000E+00
  0.00000000E+00  0.00000000E+00  0.00000000E+00  0.00000000E+00  0.00000000E+00
  0.00000000E+00  6.89990666E-02  3.16423961E-01  7.44308291E-01  1.00000000E+00
  0.00000000E+00  0.00000000E+00  0.00000000E+00  0.00000000E+00  0.00000000E+00
  0.00000000E+00  0.00000000E+00  0.00000000E+00  0.00000000E+00  0.00000000E+00
  0.00000000E+00  0.00000000E+00  6.89990666E-02  3.16423961E-01  7.44308291E-01
  1.00000000E+00  0.00000000E+00  0.00000000E+00  0.00000000E+00  0.00000000E+00
  0.00000000E+00  0.00000000E+00  0.00000000E+00  0.00000000E+00  0.00000000E+00
  0.00000000E+00  0.00000000E+00  0.00000000E+00  6.89990666E-02  3.16423961E-01
  7.44308291E-01  1.00000000E+00  0.00000000E+00  0.00000000E+00  0.00000000E+00
  0.00000000E+00  0.00000000E+00  0.00000000E+00  0.00000000E+00  0.00000000E+00
  0.00000000E+00  0.00000000E+00  0.00000000E+00  0.00000000E+00  6.89990666E-02
  3.16423961E-01  7.44308291E-01  1.00000000E+00  0.00000000E+00  0.00000000E+00
  0.00000000E+00  0.00000000E+00  0.00000000E+00  0.00000000E+00  0.00000000E+00
  6.89990666E-02  3.16423961E-01  7.44308291E-01  1.00000000E+00  0.00000000E+00
  0.00000000E+00  0.00000000E+00  0.00000000E+00  0.00000000E+00  0.00000000E+00
  0.00000000E+00  0.00000000E+00  0.00000000E+00  0.00000000E+00  0.00000000E+00
  0.00000000E+00  6.89990666E-02  3.16423961E-01  7.44308291E-01  1.00000000E+00
  0.00000000E+00  0.00000000E+00  0.00000000E+00  0.00000000E+00  0.00000000E+00
  0.00000000E+00  0.00000000E+00  0.00000000E+00  0.00000000E+00  0.00000000E+00
  0.00000000E+00  0.00000000E+00  6.89990666E-02  3.16423961E-01  7.44308291E-01
  1.00000000E+00  0.00000000E+00  0.00000000E+00  0.00000000E+00  0.00000000E+00
  0.00000000E+00  0.00000000E+00  0.00000000E+00  6.89990666E-02  3.16423961E-01
  7.44308291E-01  1.00000000E+00  0.00000000E+00  0.00000000E+00  0.00000000E+00
  0.00000000E+00  0.00000000E+00  0.00000000E+00  0.00000000E+00  0.00000000E+00
  0.00000000E+00  0.00000000E+00  0.00000000E+00  0.00000000E+00  6.89990666E-02
  3.16423961E-01  7.44308291E-01  1.00000000E+00  0.00000000E+00  0.00000000E+00
  0.00000000E+00  0.00000000E+00  0.00000000E+00  0.00000000E+00
Coordinates of each shell                  R   N=         258
  6.05275498E+00  1.37202224E+01  8.34958103E+00  6.05275498E+00  1.37202224E+01
  8.34958103E+00  6.05275498E+00  1.37202224E+01  8.34958103E+00  6.05275498E+00
  1.37202224E+01  8.34958103E+00  5.38581394E+00  1.53381000E+01  8.74746097E+00
  5.38581394E+00  1.53381000E+01  8.74746097E+00  5.38581394E+00  1.53381000E+01
  8.74746097E+00  8.19559858E+00  1.28535032E+01  9.62562048E+00  8.19559858E+00
  1.28535032E+01  9.62562048E+00  8.19559858E+00  1.28535032E+01  9.62562048E+00
  8.19559858E+00  1.28535032E+01  9.62562048E+00  9.40728719E+00  1.43229618E+01
  1.15333954E+01  9.40728719E+00  1.43229618E+01  1.15333954E+01  9.40728719E+00
  1.43229618E+01  1.15333954E+01  9.40728719E+00  1.43229618E+01  1.15333954E+01
  8.75015572E+00  1.59397038E+01  1.19550178E+01  8.75015572E+00  1.59397038E+01
  1.19550178E+01  8.75015572E+00  1.59397038E+01  1.19550178E+01  1.14942100E+01
  1.34426462E+01  1.27597785E+01  1.14942100E+01  1.34426462E+01  1.27597785E+01
  1.14942100E+01  1.34426462E+01  1.27597785E+01  1.14942100E+01  1.34426462E+01
  1.27597785E+01  1.22678110E+01  1.44419220E+01  1.40344215E+01  1.22678110E+01
  1.44419220E+01  1.40344215E+01  1.22678110E+01  1.44419220E+01  1.40344215E+01
  4.87291959E+00  1.22530314E+01  6.49891176E+00  4.87291959E+00  1.22530314E+01
  6.49891176E+00  4.87291959E+00  1.22530314E+01  6.49891176E+00  4.87291959E+00
  1.22530314E+01  6.49891176E+00  2.66094603E+00  1.30868958E+01  5.18857756E+00
  2.66094603E+00  1.30868958E+01  5.18857756E+00  2.66094603E+00  1.30868958E+01
  5.18857756E+00  2.66094603E+00  1.30868958E+01  5.18857756E+00  1.94777095E+00
  1.46866434E+01  5.58800897E+00  1.94777095E+00  1.46866434E+01  5.58800897E+00
  1.94777095E+00  1.46866434E+01  5.58800897E+00  1.56039599E+00  1.16276341E+01
  3.37934054E+00  1.56039599E+00  1.16276341E+01  3.37934054E+00  1.56039599E+00
  1.16276341E+01  3.37934054E+00  1.56039599E+00  1.16276341E+01  3.37934054E+00
  9.63760324E-02  1.22190428E+01  2.52476859E+00  9.63760324E-02  1.22190428E+01
  2.52476859E+00  9.63760324E-02  1.22190428E+01  2.52476859E+00  8.02893608E+00
  8.93910566E+00  7.16835480E+00  8.02893608E+00  8.93910566E+00  7.16835480E+00
  8.02893608E+00  8.93910566E+00  7.16835480E+00  8.02893608E+00  8.93910566E+00
  7.16835480E+00  8.69587523E+00  7.32122797E+00  6.77047485E+00  8.69587523E+00
  7.32122797E+00  6.77047485E+00  8.69587523E+00  7.32122797E+00  6.77047485E+00
  5.88609059E+00  9.80582477E+00  5.89231534E+00  5.88609059E+00  9.80582477E+00
  5.89231534E+00  5.88609059E+00  9.80582477E+00  5.89231534E+00  5.88609059E+00
  9.80582477E+00  5.89231534E+00  4.67440387E+00  8.33636617E+00  3.98454045E+00
  4.67440387E+00  8.33636617E+00  3.98454045E+00  4.67440387E+00  8.33636617E+00
  3.98454045E+00  4.67440387E+00  8.33636617E+00  3.98454045E+00  5.33153534E+00
  6.71962421E+00  3.56291798E+00  5.33153534E+00  6.71962421E+00  3.56291798E+00
  5.33153534E+00  6.71962421E+00  3.56291798E+00  2.58748104E+00  9.21668186E+00
  2.75815732E+00  2.58748104E+00  9.21668186E+00  2.75815732E+00  2.58748104E+00
  9.21668186E+00  2.75815732E+00  2.58748104E+00  9.21668186E+00  2.75815732E+00
  1.81387819E+00  8.21740602E+00  1.48351438E+00  1.81387819E+00  8.21740602E+00
  1.48351438E+00  1.81387819E+00  8.21740602E+00  1.48351438E+00  9.20876958E+00
  1.04062966E+01  9.01902407E+00  9.20876958E+00  1.04062966E+01  9.01902407E+00
  9.20876958E+00  1.04062966E+01  9.01902407E+00  9.20876958E+00  1.04062966E+01
  9.01902407E+00  1.14207431E+01  9.57243225E+00  1.03293583E+01  1.14207431E+01
  9.57243225E+00  1.03293583E+01  1.14207431E+01  9.57243225E+00  1.03293583E+01
  1.14207431E+01  9.57243225E+00  1.03293583E+01  1.21339201E+01  7.97268460E+00
  9.92992686E+00  1.21339201E+01  7.97268460E+00  9.92992686E+00  1.21339201E+01
  7.97268460E+00  9.92992686E+00  1.25212932E+01  1.10316939E+01  1.21385953E+01
  1.25212932E+01  1.10316939E+01  1.21385953E+01  1.25212932E+01  1.10316939E+01
  1.21385953E+01  1.25212932E+01  1.10316939E+01  1.21385953E+01  1.39853131E+01
  1.04402852E+01  1.29931672E+01  1.39853131E+01  1.04402852E+01  1.29931672E+01
  1.39853131E+01  1.04402852E+01  1.29931672E+01
Num ILSW                                   I              100
ILSW                                       I   N=         100
           0           1           0           0           2           0
           0           0           0           0         402          -1
           5           0           0           0           0           0
           0           0           1           0           0           0
           1           1           0           0           0           0
           0           0      100000           0          -1           0
           0           0           0           0           0           0
           0           0           0           1           0           0
           0 -2000000000           1           0           0           0
           0           0           4          52           0           0
           0           0           5           0           0           0
           0           0           0           0           0           1
           0           0           0           0           0           0
           0           0           0           0           0           0
           0           0           0           0           0           0
           0           0           0           0           0           0
           0           0           0           0
Num RLSW                                   I               52
RLSW                                       R   N=          52
  8.00000000E-01  7.20000000E-01  1.00000000E+00  8.10000000E-01  2.00000000E-01
  0.00000000E+00  0.00000000E+00  1.00000000E+00  0.00000000E+00  0.00000000E+00
  0.00000000E+00  0.00000000E+00  1.00000000E+00  0.00000000E+00  0.00000000E+00
  0.00000000E+00  0.00000000E+00  1.00000000E+00  0.00000000E+00  0.00000000E+00
  0.00000000E+00  0.00000000E+00  1.00000000E+00  0.00000000E+00  0.00000000E+00
  0.00000000E+00  0.00000000E+00  1.00000000E+00  0.00000000E+00  0.00000000E+00
  0.00000000E+00  0.00000000E+00  1.00000000E+00  0.00000000E+00  0.00000000E+00
  0.00000000E+00  0.00000000E+00  0.00000000E+00  1.00000000E+00  1.00000000E+00
  0.00000000E+00  1.00000000E+00  0.00000000E+00  0.00000000E+00  0.00000000E+00
  0.00000000E+00  0.00000000E+00  0.00000000E+00  0.00000000E+00  0.00000000E+00
  0.00000000E+00  0.00000000E+00
MxBond                                     I                3
NBond                                      I   N=          24
           3           1           3           3           1           3
           1           3           3           1           3           1
           3           1           3           3           1           3
           1           3           3           1           3           1
IBond                                      I   N=          72
           2           3           8           1           0           0
           1           4          20           3           5           6
           4           0           0           4           7          23
           6           0           0           1           9          15
           8          10          11           9           0           0
           9          12          18          11           0           0
          14          15          20          13           0           0